80   
4    

1    
  0.0082063333152338   0.0000000000000000   0.0057145510339207
  -0.0294813100    0.0000000000   -0.0200765800
   0.0081727100    0.0000000000   -0.0008328300
  -0.0010210500    0.0000000000   -0.0008343100
   0.0010760700    0.0000000000   -0.0001621900
  -0.0081415100    0.0000000000    0.0137731300
   0.0036172000    0.0000000000    0.0008710400
  -0.0009744800    0.0000000000    0.0008726400
   0.0010141700    0.0000000000    0.0001633900
   0.0030144500    0.0062985500   -0.0023680400
   0.0030218900   -0.0062523700   -0.0023349100
   0.0030144500   -0.0062985500   -0.0023680400
   0.0030218900    0.0062523700   -0.0023349100
   0.0013075300    0.0025765200    0.0026238600
   0.0013169900   -0.0025699800    0.0025950600
   0.0013075300   -0.0025765200    0.0026238600
   0.0013169900    0.0025699800    0.0025950600
   0.0246680800    0.0000000000    0.0169851900
   0.0020540400    0.0000000000   -0.0132859200
   0.0009739400    0.0000000000    0.0001751400
  -0.0008376600    0.0000000000   -0.0001704100
   0.0019231700    0.0000000000   -0.0133870500
   0.0243154100    0.0000000000    0.0167183600
  -0.0008629900    0.0000000000   -0.0001728700
   0.0009801900    0.0000000000    0.0001732500
  -0.0129342100    0.0112604500    0.0017116600
   0.0048252900    0.0009212100    0.0000025100
  -0.0129342100   -0.0112604500    0.0017116600
   0.0048252900   -0.0009212100    0.0000025100
  -0.0127952800   -0.0112433000    0.0018019800
   0.0048164300   -0.0009054300    0.0000004800
  -0.0127952800    0.0112433000    0.0018019800
   0.0048164300    0.0009054300    0.0000004800
   0.0014451200   -0.0071957300   -0.0049784200
  -0.0030283100    0.0020637400    0.0008300100
   0.0007351400    0.0015506900    0.0000748600
  -0.0012169900   -0.0001616700    0.0000508700
   0.0059127100   -0.0026548400    0.0016388000
  -0.0055956500    0.0034691300   -0.0007452500
   0.0021374100   -0.0010347000    0.0000113000
  -0.0011126700   -0.0000491400   -0.0001004500
  -0.0011093300   -0.0000517500   -0.0001029100
   0.0021249400   -0.0010224500    0.0000172600
  -0.0056215500    0.0034921100   -0.0007530500
   0.0058659400   -0.0026921800    0.0016993700
  -0.0012137900   -0.0001649100    0.0000536000
   0.0007176000    0.0015478300    0.0000686600
  -0.0030156800    0.0020658800    0.0008402200
   0.0012992600   -0.0072093700   -0.0050938700
   0.0007351400   -0.0015506900    0.0000748600
  -0.0012169900    0.0001616700    0.0000508700
   0.0014451200    0.0071957300   -0.0049784200
  -0.0030283100   -0.0020637400    0.0008300100
   0.0021374100    0.0010347000    0.0000113000
  -0.0011126700    0.0000491400   -0.0001004500
   0.0059127100    0.0026548400    0.0016388000
  -0.0055956500   -0.0034691300   -0.0007452500
  -0.0056215500   -0.0034921100   -0.0007530500
   0.0058659400    0.0026921800    0.0016993700
  -0.0011093300    0.0000517500   -0.0001029100
   0.0021249400    0.0010224500    0.0000172600
  -0.0030156800   -0.0020658800    0.0008402200
   0.0012992600    0.0072093700   -0.0050938700
  -0.0012137900    0.0001649100    0.0000536000
   0.0007176000   -0.0015478300    0.0000686600
  -0.0070101700    0.0000000000    0.0048818200
  -0.0071567400    0.0000000000    0.0047864200
   0.0000412700    0.0000000000    0.0003946100
   0.0000356100    0.0000000000    0.0003917300
  -0.0011912500    0.0000000000   -0.0038117200
  -0.0011942800    0.0000000000   -0.0037555500
   0.0000565100    0.0000000000   -0.0004193400
   0.0000515200    0.0000000000   -0.0004165100
   0.0035897700    0.0000364600    0.0048237100
  -0.0014855700   -0.0000027500    0.0003875000
   0.0035897700   -0.0000364600    0.0048237100
  -0.0014855700    0.0000027500    0.0003875000
   0.0030654600   -0.0000057900   -0.0037732300
  -0.0016211300   -0.0000028100   -0.0004123100
   0.0030654600    0.0000057900   -0.0037732300
  -0.0016211300    0.0000028100   -0.0004123100

17   
  0.0082063333152338   0.0000000000000000   0.0057145510339207
   0.0235994300    0.0000000000    0.0178052600
   0.0027323000    0.0000000000   -0.0144259800
   0.0001820500    0.0000000000    0.0013139200
  -0.0000562600    0.0000000000   -0.0013069200
   0.0027265800    0.0000000000   -0.0143746600
   0.0239025900    0.0000000000    0.0180238000
  -0.0000601100    0.0000000000   -0.0013098000
   0.0001856400    0.0000000000    0.0013113000
  -0.0128514900   -0.0104957500    0.0017570600
   0.0048217000   -0.0001182600    0.0000013700
  -0.0128514900    0.0104957500    0.0017570600
   0.0048217000    0.0001182600    0.0000013700
  -0.0128792800    0.0105247800    0.0017563400
   0.0048217800    0.0001235300    0.0000029400
  -0.0128792800   -0.0105247800    0.0017563400
   0.0048217800   -0.0001235300    0.0000029400
  -0.1136711000    0.0000000000   -0.0902791700
   0.0164680900    0.0000000000   -0.0013680300
  -0.0141952200    0.0000000000   -0.0013685800
   0.0094373500    0.0000000000    0.0000916700
  -0.0087788700    0.0000000000    0.0801153400
   0.0077657000    0.0000000000    0.0013771600
  -0.0034112800    0.0000000000    0.0013777300
   0.0062932800    0.0000000000   -0.0000009400
   0.0252038500   -0.0261852800   -0.0004924400
   0.0252500300    0.0262621100   -0.0005064800
   0.0252038500    0.0261852800   -0.0004924400
   0.0252500300   -0.0262621100   -0.0005064800
  -0.0004173300   -0.0017562000    0.0006391200
  -0.0004316100    0.0017407500    0.0006565000
  -0.0004173300    0.0017562000    0.0006391200
  -0.0004316100   -0.0017407500    0.0006565000
   0.0078908700    0.0035874900    0.0072168800
  -0.0105031400    0.0024627000    0.0007846200
   0.0049508900   -0.0077220100    0.0007786500
  -0.0065133500    0.0053267200    0.0000040600
   0.0040819900   -0.0005578900   -0.0079548100
  -0.0039694800   -0.0001945700   -0.0007358000
   0.0027751900   -0.0008842500   -0.0007370000
  -0.0031312200    0.0020102500   -0.0000784300
   0.0049465100   -0.0077234500    0.0007792800
  -0.0065152700    0.0053325400    0.0000076300
   0.0086767100    0.0027317300    0.0071737800
  -0.0104866200    0.0024718900    0.0007736300
   0.0027705000   -0.0008846400   -0.0007371800
  -0.0031356000    0.0020139300   -0.0000760900
   0.0041159200   -0.0005764900   -0.0079718000
  -0.0039733000   -0.0001907000   -0.0007387300
   0.0049508900    0.0077220100    0.0007786500
  -0.0065133500   -0.0053267200    0.0000040600
   0.0078908700   -0.0035874900    0.0072168800
  -0.0105031400   -0.0024627000    0.0007846200
   0.0027751900    0.0008842500   -0.0007370000
  -0.0031312200   -0.0020102500   -0.0000784300
   0.0040819900    0.0005578900   -0.0079548100
  -0.0039694800    0.0001945700   -0.0007358000
   0.0086767100   -0.0027317300    0.0071737800
  -0.0104866200   -0.0024718900    0.0007736300
   0.0049465100    0.0077234500    0.0007792800
  -0.0065152700   -0.0053325400    0.0000076300
   0.0041159200    0.0005764900   -0.0079718000
  -0.0039733000    0.0001907000   -0.0007387300
   0.0027705000    0.0008846400   -0.0007371800
  -0.0031356000   -0.0020139300   -0.0000760900
   0.0110002500    0.0000000000   -0.0008121800
  -0.0038434700    0.0000000000   -0.0000361400
   0.0016832800    0.0000000000   -0.0000424200
  -0.0019401200    0.0000000000   -0.0000471300
   0.0108891800    0.0000000000    0.0004367200
  -0.0038412500    0.0000000000   -0.0000384500
   0.0016834700    0.0000000000   -0.0000321300
  -0.0019400400    0.0000000000   -0.0000369100
  -0.0021706600    0.0032793300   -0.0068047200
  -0.0022798300   -0.0033987900    0.0065656800
  -0.0021706600   -0.0032793300   -0.0068047200
  -0.0022798300    0.0033987900    0.0065656800
  -0.0022819700    0.0033966200    0.0065692100
  -0.0021715200   -0.0032971900   -0.0068200100
  -0.0022819700   -0.0033966200    0.0065692100
  -0.0021715200    0.0032971900   -0.0068200100

33   
  0.0082063333152338   0.0000000000000000   0.0057145510339207
   0.0012293500   -0.0073177100   -0.0050063200
  -0.0037588100    0.0002849800    0.0019060300
   0.0014404500    0.0033175300   -0.0009750600
  -0.0011050600   -0.0000530300   -0.0001038300
   0.0059292500   -0.0026369600    0.0016123700
  -0.0048719500    0.0002425500   -0.0018184700
   0.0014033900    0.0022230500    0.0010583100
  -0.0012138800   -0.0001615800    0.0000535600
   0.0060017700   -0.0025700300    0.0015156900
  -0.0048624900    0.0002402600   -0.0018051700
   0.0014134100    0.0022188400    0.0010519900
  -0.0012187400   -0.0001606900    0.0000546500
   0.0013626700   -0.0072276900   -0.0048555300
  -0.0037688700    0.0002776600    0.0018889100
   0.0014562800    0.0033312300   -0.0009639000
  -0.0011125600   -0.0000538200   -0.0001033700
   0.0087091500    0.0026050300    0.0071047300
  -0.0104793000   -0.0076882600    0.0007727600
   0.0049716600    0.0024784400    0.0007827000
  -0.0065157300    0.0053268300    0.0000103000
   0.0040963500   -0.0005554300   -0.0080287600
  -0.0039831900   -0.0008747100   -0.0007315200
   0.0027730300   -0.0001882100   -0.0007411800
  -0.0031304200    0.0020056800   -0.0000811800
   0.0078521100    0.0037095600    0.0072800900
  -0.0105083700   -0.0077582700    0.0007809200
   0.0049223400    0.0024574100    0.0007715100
  -0.0065133300    0.0053388900    0.0000069200
   0.0040968900   -0.0005708000   -0.0078960800
  -0.0039666400   -0.0008854900   -0.0007385000
   0.0027765300   -0.0002066500   -0.0007308100
  -0.0031289100    0.0020125800   -0.0000802900
  -0.0852949000    0.0477873500   -0.0266137000
   0.0075334500   -0.0012596500   -0.0002629700
  -0.0012735800   -0.0012604400   -0.0002629400
   0.0040427700   -0.0033176300    0.0001477500
  -0.0073353400    0.0041849100    0.0016628400
   0.0029856200   -0.0001768400    0.0002776400
  -0.0017144300   -0.0001740100    0.0002776600
   0.0019034500   -0.0013918300    0.0000240500
  -0.0013052900    0.0025978200   -0.0009361700
   0.0140445900   -0.0132714600    0.0005070200
   0.0141115200   -0.0132937100    0.0005403900
  -0.0012799500    0.0025808400   -0.0009273000
   0.0011919600    0.0018362100    0.0020407400
   0.0021779500   -0.0025891900    0.0013353500
   0.0021818200   -0.0025997100    0.0013611800
   0.0011967900    0.0018362300    0.0020045500
  -0.0083638300   -0.0062572800   -0.0014466800
   0.0035628000    0.0015890200   -0.0000748100
  -0.0083864400   -0.0061349700   -0.0014576000
   0.0035581400    0.0015808100   -0.0000744700
  -0.0040150100   -0.0009101600    0.0013565300
   0.0024063000    0.0006599200    0.0000806100
  -0.0040208100   -0.0009073300    0.0013476900
   0.0024095800    0.0006587600    0.0000793400
   0.0240806500    0.0062230800   -0.0014791700
   0.0237903900    0.0061712300   -0.0014260200
  -0.0007079700   -0.0015886500   -0.0000755500
  -0.0006984200   -0.0015825900   -0.0000737700
   0.0019183500    0.0009104100    0.0013617700
   0.0019248400    0.0009042400    0.0013423500
  -0.0000498700   -0.0006599900    0.0000808700
  -0.0000435700   -0.0006558700    0.0000790900
  -0.0023089700   -0.0003804000   -0.0078373400
   0.0026604800    0.0007282900    0.0009257500
  -0.0009026100   -0.0004277500    0.0005031800
   0.0010791100   -0.0008393600    0.0006713700
   0.0075287400   -0.0102500100    0.0212490900
   0.0013997600    0.0007841700   -0.0008335800
  -0.0009601200    0.0008522200   -0.0004100700
   0.0010872600   -0.0008468900   -0.0004913000
   0.0074439000   -0.0100805800    0.0209876500
   0.0013869000    0.0007896500   -0.0008405500
  -0.0009563900    0.0008453900   -0.0004006100
   0.0010869700   -0.0008507800   -0.0004883300
  -0.0022194100   -0.0004479400   -0.0079252600
   0.0026662800    0.0007312200    0.0009350200
  -0.0008997500   -0.0004147500    0.0004938100
   0.0010799400   -0.0008431700    0.0006734100

65   
  0.0082063333152338   0.0000000000000000   0.0057145510339207
  -0.0071926000    0.0000000000    0.0048149700
  -0.0069761100    0.0000000000    0.0048457000
   0.0000322600    0.0000000000    0.0003911000
   0.0000458000    0.0000000000    0.0003941800
  -0.0011946900    0.0000000000   -0.0037698000
  -0.0011923600    0.0000000000   -0.0037915500
   0.0000476900    0.0000000000   -0.0004165100
   0.0000600400    0.0000000000   -0.0004192800
   0.0035903700    0.0000647000    0.0048302600
  -0.0014859100   -0.0000027900    0.0003929500
   0.0035903700   -0.0000647000    0.0048302600
  -0.0014859100    0.0000027900    0.0003929500
   0.0030663400   -0.0000056000   -0.0037803600
  -0.0016210200   -0.0000010200   -0.0004182500
   0.0030663400    0.0000056000   -0.0037803600
  -0.0016210200    0.0000010200   -0.0004182500
   0.0107901900    0.0000000000    0.0005396900
  -0.0038480500    0.0000000000   -0.0000433400
   0.0016905100    0.0000000000   -0.0000275900
  -0.0019417900    0.0000000000   -0.0000415300
   0.0110973900    0.0000000000   -0.0009235600
  -0.0038371600    0.0000000000   -0.0000314700
   0.0016786100    0.0000000000   -0.0000472200
  -0.0019386800    0.0000000000   -0.0000423900
   0.0024129100   -0.0013111500   -0.0001969200
  -0.0069088000   -0.0080389800   -0.0000452500
   0.0024129100    0.0013111500   -0.0001969200
  -0.0069088000    0.0080389800   -0.0000452500
  -0.0068658100    0.0079691700   -0.0000433000
   0.0024562200    0.0013238200   -0.0002049500
  -0.0068658100   -0.0079691700   -0.0000433000
   0.0024562200   -0.0013238200   -0.0002049500
  -0.0074667100    0.0047828700   -0.0004367100
   0.0026439200   -0.0000940700    0.0009620000
  -0.0006142900    0.0001480800    0.0000817500
   0.0014849400   -0.0012488600    0.0000877200
   0.0126396400   -0.0152757300    0.0135296500
   0.0014118900    0.0005297300   -0.0008690200
  -0.0012310500    0.0013651900    0.0000127200
   0.0006813400   -0.0004454400    0.0000975300
  -0.0012478800    0.0013747400   -0.0000012900
   0.0006852300   -0.0004447600    0.0000960500
   0.0127820000   -0.0155037600    0.0137094300
   0.0014203900    0.0005186000   -0.0008617500
  -0.0006263700    0.0001442200    0.0000936400
   0.0014819300   -0.0012415000    0.0000844400
  -0.0075101700    0.0048372200   -0.0003294800
   0.0026380500   -0.0000979000    0.0009553100
  -0.0006142900   -0.0001480800    0.0000817500
   0.0014849400    0.0012488600    0.0000877200
  -0.0074667100   -0.0047828700   -0.0004367100
   0.0026439200    0.0000940700    0.0009620000
  -0.0012310500   -0.0013651900    0.0000127200
   0.0006813400    0.0004454400    0.0000975300
   0.0126396400    0.0152757300    0.0135296500
   0.0014118900   -0.0005297300   -0.0008690200
   0.0127820000    0.0155037600    0.0137094300
   0.0014203900   -0.0005186000   -0.0008617500
  -0.0012478800   -0.0013747400   -0.0000012900
   0.0006852300    0.0004447600    0.0000960500
  -0.0075101700   -0.0048372200   -0.0003294800
   0.0026380500    0.0000979000    0.0009553100
  -0.0006263700   -0.0001442200    0.0000936400
   0.0014819300    0.0012415000    0.0000844400
  -0.0367999400    0.0000000000   -0.1021289800
   0.0052394300    0.0000000000   -0.0004384800
  -0.0003729700    0.0000000000   -0.0004407800
   0.0005100200    0.0000000000   -0.0000762200
   0.0017143500    0.0000000000    0.0429738500
   0.0012096100    0.0000000000    0.0005453100
  -0.0003530500    0.0000000000    0.0005471800
   0.0004782300    0.0000000000    0.0002503800
   0.0000529200   -0.0012226000   -0.0028175100
   0.0000444100    0.0012283800   -0.0028396600
   0.0000529200    0.0012226000   -0.0028175100
   0.0000444100   -0.0012283800   -0.0028396600
   0.0008042500   -0.0011977800    0.0032693100
   0.0008078900    0.0012076800    0.0033098600
   0.0008042500    0.0011977800    0.0032693100
   0.0008078900   -0.0012076800    0.0033098600
