phonopy:
  version: "2.21.2"
  frequency_unit_conversion_factor: 15.633302
  symmetry_tolerance: 1.00000e-05
  configuration:
    create_displacements: ".true."
    dim: "2 2 2"

physical_unit:
  atomic_mass: "AMU"
  length: "angstrom"
  force_constants: "eV/angstrom^2"

space_group:
  type: "P4/mmm"
  number: 123
  Hall_symbol: "-P 4 2"

supercell_matrix:
- [   2,   0,   0 ]
- [   0,   2,   0 ]
- [   0,   0,   2 ]

primitive_cell:
  lattice:
  - [     5.592343019000000,     0.000000000000000,     0.000000000000000 ] # a
  - [     0.000000000000000,     5.592343019000000,     0.000000000000000 ] # b
  - [     0.000000000000000,     0.000000000000000,     3.894276329471191 ] # c
  points:
  - symbol: Pb # 1
    coordinates: [  0.000000000000000,  0.000000000000000,  0.000000000000000 ]
    mass: 207.200000
  - symbol: Pb # 2
    coordinates: [  0.500000000000000,  0.500000000000000,  0.000000000000000 ]
    mass: 207.200000
  - symbol: Ti # 3
    coordinates: [  0.500000000000000,  0.000000000000000,  0.500000000000000 ]
    mass: 47.867000
  - symbol: Ti # 4
    coordinates: [  0.000000000000000,  0.500000000000000,  0.500000000000000 ]
    mass: 47.867000
  - symbol: O  # 5
    coordinates: [  0.250000000000000,  0.250000000000000,  0.500000000000000 ]
    mass: 15.999400
  - symbol: O  # 6
    coordinates: [  0.750000000000000,  0.750000000000000,  0.500000000000000 ]
    mass: 15.999400
  - symbol: O  # 7
    coordinates: [  0.250000000000000,  0.750000000000000,  0.500000000000000 ]
    mass: 15.999400
  - symbol: O  # 8
    coordinates: [  0.750000000000000,  0.250000000000000,  0.500000000000000 ]
    mass: 15.999400
  - symbol: O  # 9
    coordinates: [  0.500000000000000,  0.000000000000000,  0.000000000000000 ]
    mass: 15.999400
  - symbol: O  # 10
    coordinates: [  0.000000000000000,  0.500000000000000,  0.000000000000000 ]
    mass: 15.999400
  reciprocal_lattice: # without 2pi
  - [     0.178815926813233,     0.000000000000000,     0.000000000000000 ] # a*
  - [     0.000000000000000,     0.178815926813233,     0.000000000000000 ] # b*
  - [     0.000000000000000,     0.000000000000000,     0.256787119196493 ] # c*

unit_cell:
  lattice:
  - [     5.592343019000000,     0.000000000000000,     0.000000000000000 ] # a
  - [     0.000000000000000,     5.592343019000000,     0.000000000000000 ] # b
  - [     0.000000000000000,     0.000000000000000,     3.894276329471191 ] # c
  points:
  - symbol: Pb # 1
    coordinates: [  0.000000000000000,  0.000000000000000,  0.000000000000000 ]
    mass: 207.200000
    reduced_to: 1
  - symbol: Pb # 2
    coordinates: [  0.500000000000000,  0.500000000000000,  0.000000000000000 ]
    mass: 207.200000
    reduced_to: 2
  - symbol: Ti # 3
    coordinates: [  0.500000000000000,  0.000000000000000,  0.500000000000000 ]
    mass: 47.867000
    reduced_to: 3
  - symbol: Ti # 4
    coordinates: [  0.000000000000000,  0.500000000000000,  0.500000000000000 ]
    mass: 47.867000
    reduced_to: 4
  - symbol: O  # 5
    coordinates: [  0.250000000000000,  0.250000000000000,  0.500000000000000 ]
    mass: 15.999400
    reduced_to: 5
  - symbol: O  # 6
    coordinates: [  0.750000000000000,  0.750000000000000,  0.500000000000000 ]
    mass: 15.999400
    reduced_to: 6
  - symbol: O  # 7
    coordinates: [  0.250000000000000,  0.750000000000000,  0.500000000000000 ]
    mass: 15.999400
    reduced_to: 7
  - symbol: O  # 8
    coordinates: [  0.750000000000000,  0.250000000000000,  0.500000000000000 ]
    mass: 15.999400
    reduced_to: 8
  - symbol: O  # 9
    coordinates: [  0.500000000000000,  0.000000000000000,  0.000000000000000 ]
    mass: 15.999400
    reduced_to: 9
  - symbol: O  # 10
    coordinates: [  0.000000000000000,  0.500000000000000,  0.000000000000000 ]
    mass: 15.999400
    reduced_to: 10

supercell:
  lattice:
  - [    11.184686038000001,     0.000000000000000,     0.000000000000000 ] # a
  - [     0.000000000000000,    11.184686038000001,     0.000000000000000 ] # b
  - [     0.000000000000000,     0.000000000000000,     7.788552658942383 ] # c
  points:
  - symbol: Pb # 1
    coordinates: [  0.000000000000000,  0.000000000000000,  0.000000000000000 ]
    mass: 207.200000
    reduced_to: 1
  - symbol: Pb # 2
    coordinates: [  0.500000000000000,  0.000000000000000,  0.000000000000000 ]
    mass: 207.200000
    reduced_to: 1
  - symbol: Pb # 3
    coordinates: [  0.000000000000000,  0.500000000000000,  0.000000000000000 ]
    mass: 207.200000
    reduced_to: 1
  - symbol: Pb # 4
    coordinates: [  0.500000000000000,  0.500000000000000,  0.000000000000000 ]
    mass: 207.200000
    reduced_to: 1
  - symbol: Pb # 5
    coordinates: [  0.000000000000000,  0.000000000000000,  0.500000000000000 ]
    mass: 207.200000
    reduced_to: 1
  - symbol: Pb # 6
    coordinates: [  0.500000000000000,  0.000000000000000,  0.500000000000000 ]
    mass: 207.200000
    reduced_to: 1
  - symbol: Pb # 7
    coordinates: [  0.000000000000000,  0.500000000000000,  0.500000000000000 ]
    mass: 207.200000
    reduced_to: 1
  - symbol: Pb # 8
    coordinates: [  0.500000000000000,  0.500000000000000,  0.500000000000000 ]
    mass: 207.200000
    reduced_to: 1
  - symbol: Pb # 9
    coordinates: [  0.250000000000000,  0.250000000000000,  0.000000000000000 ]
    mass: 207.200000
    reduced_to: 9
  - symbol: Pb # 10
    coordinates: [  0.750000000000000,  0.250000000000000,  0.000000000000000 ]
    mass: 207.200000
    reduced_to: 9
  - symbol: Pb # 11
    coordinates: [  0.250000000000000,  0.750000000000000,  0.000000000000000 ]
    mass: 207.200000
    reduced_to: 9
  - symbol: Pb # 12
    coordinates: [  0.750000000000000,  0.750000000000000,  0.000000000000000 ]
    mass: 207.200000
    reduced_to: 9
  - symbol: Pb # 13
    coordinates: [  0.250000000000000,  0.250000000000000,  0.500000000000000 ]
    mass: 207.200000
    reduced_to: 9
  - symbol: Pb # 14
    coordinates: [  0.750000000000000,  0.250000000000000,  0.500000000000000 ]
    mass: 207.200000
    reduced_to: 9
  - symbol: Pb # 15
    coordinates: [  0.250000000000000,  0.750000000000000,  0.500000000000000 ]
    mass: 207.200000
    reduced_to: 9
  - symbol: Pb # 16
    coordinates: [  0.750000000000000,  0.750000000000000,  0.500000000000000 ]
    mass: 207.200000
    reduced_to: 9
  - symbol: Ti # 17
    coordinates: [  0.250000000000000,  0.000000000000000,  0.250000000000000 ]
    mass: 47.867000
    reduced_to: 17
  - symbol: Ti # 18
    coordinates: [  0.750000000000000,  0.000000000000000,  0.250000000000000 ]
    mass: 47.867000
    reduced_to: 17
  - symbol: Ti # 19
    coordinates: [  0.250000000000000,  0.500000000000000,  0.250000000000000 ]
    mass: 47.867000
    reduced_to: 17
  - symbol: Ti # 20
    coordinates: [  0.750000000000000,  0.500000000000000,  0.250000000000000 ]
    mass: 47.867000
    reduced_to: 17
  - symbol: Ti # 21
    coordinates: [  0.250000000000000,  0.000000000000000,  0.750000000000000 ]
    mass: 47.867000
    reduced_to: 17
  - symbol: Ti # 22
    coordinates: [  0.750000000000000,  0.000000000000000,  0.750000000000000 ]
    mass: 47.867000
    reduced_to: 17
  - symbol: Ti # 23
    coordinates: [  0.250000000000000,  0.500000000000000,  0.750000000000000 ]
    mass: 47.867000
    reduced_to: 17
  - symbol: Ti # 24
    coordinates: [  0.750000000000000,  0.500000000000000,  0.750000000000000 ]
    mass: 47.867000
    reduced_to: 17
  - symbol: Ti # 25
    coordinates: [  0.000000000000000,  0.250000000000000,  0.250000000000000 ]
    mass: 47.867000
    reduced_to: 25
  - symbol: Ti # 26
    coordinates: [  0.500000000000000,  0.250000000000000,  0.250000000000000 ]
    mass: 47.867000
    reduced_to: 25
  - symbol: Ti # 27
    coordinates: [  0.000000000000000,  0.750000000000000,  0.250000000000000 ]
    mass: 47.867000
    reduced_to: 25
  - symbol: Ti # 28
    coordinates: [  0.500000000000000,  0.750000000000000,  0.250000000000000 ]
    mass: 47.867000
    reduced_to: 25
  - symbol: Ti # 29
    coordinates: [  0.000000000000000,  0.250000000000000,  0.750000000000000 ]
    mass: 47.867000
    reduced_to: 25
  - symbol: Ti # 30
    coordinates: [  0.500000000000000,  0.250000000000000,  0.750000000000000 ]
    mass: 47.867000
    reduced_to: 25
  - symbol: Ti # 31
    coordinates: [  0.000000000000000,  0.750000000000000,  0.750000000000000 ]
    mass: 47.867000
    reduced_to: 25
  - symbol: Ti # 32
    coordinates: [  0.500000000000000,  0.750000000000000,  0.750000000000000 ]
    mass: 47.867000
    reduced_to: 25
  - symbol: O  # 33
    coordinates: [  0.125000000000000,  0.125000000000000,  0.250000000000000 ]
    mass: 15.999400
    reduced_to: 33
  - symbol: O  # 34
    coordinates: [  0.625000000000000,  0.125000000000000,  0.250000000000000 ]
    mass: 15.999400
    reduced_to: 33
  - symbol: O  # 35
    coordinates: [  0.125000000000000,  0.625000000000000,  0.250000000000000 ]
    mass: 15.999400
    reduced_to: 33
  - symbol: O  # 36
    coordinates: [  0.625000000000000,  0.625000000000000,  0.250000000000000 ]
    mass: 15.999400
    reduced_to: 33
  - symbol: O  # 37
    coordinates: [  0.125000000000000,  0.125000000000000,  0.750000000000000 ]
    mass: 15.999400
    reduced_to: 33
  - symbol: O  # 38
    coordinates: [  0.625000000000000,  0.125000000000000,  0.750000000000000 ]
    mass: 15.999400
    reduced_to: 33
  - symbol: O  # 39
    coordinates: [  0.125000000000000,  0.625000000000000,  0.750000000000000 ]
    mass: 15.999400
    reduced_to: 33
  - symbol: O  # 40
    coordinates: [  0.625000000000000,  0.625000000000000,  0.750000000000000 ]
    mass: 15.999400
    reduced_to: 33
  - symbol: O  # 41
    coordinates: [  0.375000000000000,  0.375000000000000,  0.250000000000000 ]
    mass: 15.999400
    reduced_to: 41
  - symbol: O  # 42
    coordinates: [  0.875000000000000,  0.375000000000000,  0.250000000000000 ]
    mass: 15.999400
    reduced_to: 41
  - symbol: O  # 43
    coordinates: [  0.375000000000000,  0.875000000000000,  0.250000000000000 ]
    mass: 15.999400
    reduced_to: 41
  - symbol: O  # 44
    coordinates: [  0.875000000000000,  0.875000000000000,  0.250000000000000 ]
    mass: 15.999400
    reduced_to: 41
  - symbol: O  # 45
    coordinates: [  0.375000000000000,  0.375000000000000,  0.750000000000000 ]
    mass: 15.999400
    reduced_to: 41
  - symbol: O  # 46
    coordinates: [  0.875000000000000,  0.375000000000000,  0.750000000000000 ]
    mass: 15.999400
    reduced_to: 41
  - symbol: O  # 47
    coordinates: [  0.375000000000000,  0.875000000000000,  0.750000000000000 ]
    mass: 15.999400
    reduced_to: 41
  - symbol: O  # 48
    coordinates: [  0.875000000000000,  0.875000000000000,  0.750000000000000 ]
    mass: 15.999400
    reduced_to: 41
  - symbol: O  # 49
    coordinates: [  0.125000000000000,  0.375000000000000,  0.250000000000000 ]
    mass: 15.999400
    reduced_to: 49
  - symbol: O  # 50
    coordinates: [  0.625000000000000,  0.375000000000000,  0.250000000000000 ]
    mass: 15.999400
    reduced_to: 49
  - symbol: O  # 51
    coordinates: [  0.125000000000000,  0.875000000000000,  0.250000000000000 ]
    mass: 15.999400
    reduced_to: 49
  - symbol: O  # 52
    coordinates: [  0.625000000000000,  0.875000000000000,  0.250000000000000 ]
    mass: 15.999400
    reduced_to: 49
  - symbol: O  # 53
    coordinates: [  0.125000000000000,  0.375000000000000,  0.750000000000000 ]
    mass: 15.999400
    reduced_to: 49
  - symbol: O  # 54
    coordinates: [  0.625000000000000,  0.375000000000000,  0.750000000000000 ]
    mass: 15.999400
    reduced_to: 49
  - symbol: O  # 55
    coordinates: [  0.125000000000000,  0.875000000000000,  0.750000000000000 ]
    mass: 15.999400
    reduced_to: 49
  - symbol: O  # 56
    coordinates: [  0.625000000000000,  0.875000000000000,  0.750000000000000 ]
    mass: 15.999400
    reduced_to: 49
  - symbol: O  # 57
    coordinates: [  0.375000000000000,  0.125000000000000,  0.250000000000000 ]
    mass: 15.999400
    reduced_to: 57
  - symbol: O  # 58
    coordinates: [  0.875000000000000,  0.125000000000000,  0.250000000000000 ]
    mass: 15.999400
    reduced_to: 57
  - symbol: O  # 59
    coordinates: [  0.375000000000000,  0.625000000000000,  0.250000000000000 ]
    mass: 15.999400
    reduced_to: 57
  - symbol: O  # 60
    coordinates: [  0.875000000000000,  0.625000000000000,  0.250000000000000 ]
    mass: 15.999400
    reduced_to: 57
  - symbol: O  # 61
    coordinates: [  0.375000000000000,  0.125000000000000,  0.750000000000000 ]
    mass: 15.999400
    reduced_to: 57
  - symbol: O  # 62
    coordinates: [  0.875000000000000,  0.125000000000000,  0.750000000000000 ]
    mass: 15.999400
    reduced_to: 57
  - symbol: O  # 63
    coordinates: [  0.375000000000000,  0.625000000000000,  0.750000000000000 ]
    mass: 15.999400
    reduced_to: 57
  - symbol: O  # 64
    coordinates: [  0.875000000000000,  0.625000000000000,  0.750000000000000 ]
    mass: 15.999400
    reduced_to: 57
  - symbol: O  # 65
    coordinates: [  0.250000000000000,  0.000000000000000,  0.000000000000000 ]
    mass: 15.999400
    reduced_to: 65
  - symbol: O  # 66
    coordinates: [  0.750000000000000,  0.000000000000000,  0.000000000000000 ]
    mass: 15.999400
    reduced_to: 65
  - symbol: O  # 67
    coordinates: [  0.250000000000000,  0.500000000000000,  0.000000000000000 ]
    mass: 15.999400
    reduced_to: 65
  - symbol: O  # 68
    coordinates: [  0.750000000000000,  0.500000000000000,  0.000000000000000 ]
    mass: 15.999400
    reduced_to: 65
  - symbol: O  # 69
    coordinates: [  0.250000000000000,  0.000000000000000,  0.500000000000000 ]
    mass: 15.999400
    reduced_to: 65
  - symbol: O  # 70
    coordinates: [  0.750000000000000,  0.000000000000000,  0.500000000000000 ]
    mass: 15.999400
    reduced_to: 65
  - symbol: O  # 71
    coordinates: [  0.250000000000000,  0.500000000000000,  0.500000000000000 ]
    mass: 15.999400
    reduced_to: 65
  - symbol: O  # 72
    coordinates: [  0.750000000000000,  0.500000000000000,  0.500000000000000 ]
    mass: 15.999400
    reduced_to: 65
  - symbol: O  # 73
    coordinates: [  0.000000000000000,  0.250000000000000,  0.000000000000000 ]
    mass: 15.999400
    reduced_to: 73
  - symbol: O  # 74
    coordinates: [  0.500000000000000,  0.250000000000000,  0.000000000000000 ]
    mass: 15.999400
    reduced_to: 73
  - symbol: O  # 75
    coordinates: [  0.000000000000000,  0.750000000000000,  0.000000000000000 ]
    mass: 15.999400
    reduced_to: 73
  - symbol: O  # 76
    coordinates: [  0.500000000000000,  0.750000000000000,  0.000000000000000 ]
    mass: 15.999400
    reduced_to: 73
  - symbol: O  # 77
    coordinates: [  0.000000000000000,  0.250000000000000,  0.500000000000000 ]
    mass: 15.999400
    reduced_to: 73
  - symbol: O  # 78
    coordinates: [  0.500000000000000,  0.250000000000000,  0.500000000000000 ]
    mass: 15.999400
    reduced_to: 73
  - symbol: O  # 79
    coordinates: [  0.000000000000000,  0.750000000000000,  0.500000000000000 ]
    mass: 15.999400
    reduced_to: 73
  - symbol: O  # 80
    coordinates: [  0.500000000000000,  0.750000000000000,  0.500000000000000 ]
    mass: 15.999400
    reduced_to: 73

displacements:
- atom:    1
  displacement:
    [   0.0082063333152338,  0.0000000000000000,  0.0057145510339207 ]
- atom:   17
  displacement:
    [   0.0082063333152338,  0.0000000000000000,  0.0057145510339207 ]
- atom:   33
  displacement:
    [   0.0082063333152338,  0.0000000000000000,  0.0057145510339207 ]
- atom:   65
  displacement:
    [   0.0082063333152338,  0.0000000000000000,  0.0057145510339207 ]
